 # Fcc Cu oriented X=[11-2] Y=[111] Z=[-110].
 
        3072  atoms
           1  atom types
 
      0.000000000000      35.403118410000  xlo xhi
      0.000000000000      50.067570210000  ylo yhi
      0.000000000000      20.439999950000  zlo zhi
 
Masses
 
            1   63.54600000             # Cu
 
Atoms # atomic
 
         1    1        0.000000000000       0.000000000000       0.000000000000
         2    1        2.950259749490       4.172297350608       0.000000000000
         3    1        1.475130051760       2.086148925642       0.000000000000
         4    1        2.212694900625       0.000000000000       1.277499996875
         5    1        3.687824952385       2.086148925642       1.277499996875
         6    1        0.737564848865       4.172297350608       1.277499996875
         7    1        4.425389801250       0.000000000000       0.000000000000
         8    1        7.375649550740       4.172297350608       0.000000000000
         9    1        5.900519853010       2.086148925642       0.000000000000
        10    1        6.638084701875       0.000000000000       1.277499996875
        11    1        8.113214753635       2.086148925642       1.277499996875
        12    1        5.162954650115       4.172297350608       1.277499996875
        13    1        8.850779602500       0.000000000000       0.000000000000
        14    1       11.801039351990       4.172297350608       0.000000000000
        15    1       10.325909654260       2.086148925642       0.000000000000
        16    1       11.063474503125       0.000000000000       1.277499996875
        17    1       12.538604554885       2.086148925642       1.277499996875
        18    1        9.588344451365       4.172297350608       1.277499996875
        19    1       13.276169403750       0.000000000000       0.000000000000
        20    1       16.226429153240       4.172297350608       0.000000000000
        21    1       14.751299455510       2.086148925642       0.000000000000
        22    1       15.488864304375       0.000000000000       1.277499996875
        23    1       16.963994356135       2.086148925642       1.277499996875
        24    1       14.013734252615       4.172297350608       1.277499996875
        25    1       17.701559205000       0.000000000000       0.000000000000
        26    1       20.651818954490       4.172297350608       0.000000000000
        27    1       19.176689256760       2.086148925642       0.000000000000
        28    1       19.914254105625       0.000000000000       1.277499996875
        29    1       21.389384157385       2.086148925642       1.277499996875
        30    1       18.439124053865       4.172297350608       1.277499996875
        31    1       22.126949006250       0.000000000000       0.000000000000
        32    1       25.077208755740       4.172297350608       0.000000000000
        33    1       23.602079058010       2.086148925642       0.000000000000
        34    1       24.339643906875       0.000000000000       1.277499996875
        35    1       25.814773958635       2.086148925642       1.277499996875
        36    1       22.864513855115       4.172297350608       1.277499996875
        37    1       26.552338807500       0.000000000000       0.000000000000
        38    1       29.502598556990       4.172297350608       0.000000000000
        39    1       28.027468859260       2.086148925642       0.000000000000
        40    1       28.765033708125       0.000000000000       1.277499996875
        41    1       30.240163759885       2.086148925642       1.277499996875
        42    1       27.289903656365       4.172297350608       1.277499996875
        43    1       30.977728608750       0.000000000000       0.000000000000
        44    1       33.927988358240       4.172297350608       0.000000000000
        45    1       32.452858660510       2.086148925642       0.000000000000
        46    1       33.190423509375       0.000000000000       1.277499996875
        47    1       34.665553561135       2.086148925642       1.277499996875
        48    1       31.715293457615       4.172297350608       1.277499996875
        49    1        0.000000000000       6.258446276250       0.000000000000
        50    1        2.950259749490      10.430743626858       0.000000000000
        51    1        1.475130051760       8.344595201892       0.000000000000
        52    1        2.212694900625       6.258446276250       1.277499996875
        53    1        3.687824952385       8.344595201892       1.277499996875
        54    1        0.737564848865      10.430743626858       1.277499996875
        55    1        4.425389801250       6.258446276250       0.000000000000
        56    1        7.375649550740      10.430743626858       0.000000000000
        57    1        5.900519853010       8.344595201892       0.000000000000
        58    1        6.638084701875       6.258446276250       1.277499996875
        59    1        8.113214753635       8.344595201892       1.277499996875
        60    1        5.162954650115      10.430743626858       1.277499996875
        61    1        8.850779602500       6.258446276250       0.000000000000
        62    1       11.801039351990      10.430743626858       0.000000000000
        63    1       10.325909654260       8.344595201892       0.000000000000
        64    1       11.063474503125       6.258446276250       1.277499996875
        65    1       12.538604554885       8.344595201892       1.277499996875
        66    1        9.588344451365      10.430743626858       1.277499996875
        67    1       13.276169403750       6.258446276250       0.000000000000
        68    1       16.226429153240      10.430743626858       0.000000000000
        69    1       14.751299455510       8.344595201892       0.000000000000
        70    1       15.488864304375       6.258446276250       1.277499996875
        71    1       16.963994356135       8.344595201892       1.277499996875
        72    1       14.013734252615      10.430743626858       1.277499996875
        73    1       17.701559205000       6.258446276250       0.000000000000
        74    1       20.651818954490      10.430743626858       0.000000000000
        75    1       19.176689256760       8.344595201892       0.000000000000
        76    1       19.914254105625       6.258446276250       1.277499996875
        77    1       21.389384157385       8.344595201892       1.277499996875
        78    1       18.439124053865      10.430743626858       1.277499996875
        79    1       22.126949006250       6.258446276250       0.000000000000
        80    1       25.077208755740      10.430743626858       0.000000000000
        81    1       23.602079058010       8.344595201892       0.000000000000
        82    1       24.339643906875       6.258446276250       1.277499996875
        83    1       25.814773958635       8.344595201892       1.277499996875
        84    1       22.864513855115      10.430743626858       1.277499996875
        85    1       26.552338807500       6.258446276250       0.000000000000
        86    1       29.502598556990      10.430743626858       0.000000000000
        87    1       28.027468859260       8.344595201892       0.000000000000
        88    1       28.765033708125       6.258446276250       1.277499996875
        89    1       30.240163759885       8.344595201892       1.277499996875
        90    1       27.289903656365      10.430743626858       1.277499996875
        91    1       30.977728608750       6.258446276250       0.000000000000
        92    1       33.927988358240      10.430743626858       0.000000000000
        93    1       32.452858660510       8.344595201892       0.000000000000
        94    1       33.190423509375       6.258446276250       1.277499996875
        95    1       34.665553561135       8.344595201892       1.277499996875
        96    1       31.715293457615      10.430743626858       1.277499996875
        97    1        0.000000000000      12.516892552500       0.000000000000
        98    1        2.950259749490      16.689189903108       0.000000000000
        99    1        1.475130051760      14.603041478142       0.000000000000
       100    1        2.212694900625      12.516892552500       1.277499996875
       101    1        3.687824952385      14.603041478142       1.277499996875
       102    1        0.737564848865      16.689189903108       1.277499996875
       103    1        4.425389801250      12.516892552500       0.000000000000
       104    1        7.375649550740      16.689189903108       0.000000000000
       105    1        5.900519853010      14.603041478142       0.000000000000
       106    1        6.638084701875      12.516892552500       1.277499996875
       107    1        8.113214753635      14.603041478142       1.277499996875
       108    1        5.162954650115      16.689189903108       1.277499996875
       109    1        8.850779602500      12.516892552500       0.000000000000
       110    1       11.801039351990      16.689189903108       0.000000000000
       111    1       10.325909654260      14.603041478142       0.000000000000
       112    1       11.063474503125      12.516892552500       1.277499996875
       113    1       12.538604554885      14.603041478142       1.277499996875
       114    1        9.588344451365      16.689189903108       1.277499996875
       115    1       13.276169403750      12.516892552500       0.000000000000
       116    1       16.226429153240      16.689189903108       0.000000000000
       117    1       14.751299455510      14.603041478142       0.000000000000
       118    1       15.488864304375      12.516892552500       1.277499996875
       119    1       16.963994356135      14.603041478142       1.277499996875
       120    1       14.013734252615      16.689189903108       1.277499996875
       121    1       17.701559205000      12.516892552500       0.000000000000
       122    1       20.651818954490      16.689189903108       0.000000000000
       123    1       19.176689256760      14.603041478142       0.000000000000
       124    1       19.914254105625      12.516892552500       1.277499996875
       125    1       21.389384157385      14.603041478142       1.277499996875
       126    1       18.439124053865      16.689189903108       1.277499996875
       127    1       22.126949006250      12.516892552500       0.000000000000
       128    1       25.077208755740      16.689189903108       0.000000000000
       129    1       23.602079058010      14.603041478142       0.000000000000
       130    1       24.339643906875      12.516892552500       1.277499996875
       131    1       25.814773958635      14.603041478142       1.277499996875
       132    1       22.864513855115      16.689189903108       1.277499996875
       133    1       26.552338807500      12.516892552500       0.000000000000
       134    1       29.502598556990      16.689189903108       0.000000000000
       135    1       28.027468859260      14.603041478142       0.000000000000
       136    1       28.765033708125      12.516892552500       1.277499996875
       137    1       30.240163759885      14.603041478142       1.277499996875
       138    1       27.289903656365      16.689189903108       1.277499996875
       139    1       30.977728608750      12.516892552500       0.000000000000
       140    1       33.927988358240      16.689189903108       0.000000000000
       141    1       32.452858660510      14.603041478142       0.000000000000
       142    1       33.190423509375      12.516892552500       1.277499996875
       143    1       34.665553561135      14.603041478142       1.277499996875
       144    1       31.715293457615      16.689189903108       1.277499996875
       145    1        0.000000000000      18.775338828750       0.000000000000
       146    1        2.950259749490      22.947636179358       0.000000000000
       147    1        1.475130051760      20.861487754392       0.000000000000
       148    1        2.212694900625      18.775338828750       1.277499996875
       149    1        3.687824952385      20.861487754392       1.277499996875
       150    1        0.737564848865      22.947636179358       1.277499996875
       151    1        4.425389801250      18.775338828750       0.000000000000
       152    1        7.375649550740      22.947636179358       0.000000000000
       153    1        5.900519853010      20.861487754392       0.000000000000
       154    1        6.638084701875      18.775338828750       1.277499996875
       155    1        8.113214753635      20.861487754392       1.277499996875
       156    1        5.162954650115      22.947636179358       1.277499996875
       157    1        8.850779602500      18.775338828750       0.000000000000
       158    1       11.801039351990      22.947636179358       0.000000000000
       159    1       10.325909654260      20.861487754392       0.000000000000
       160    1       11.063474503125      18.775338828750       1.277499996875
       161    1       12.538604554885      20.861487754392       1.277499996875
       162    1        9.588344451365      22.947636179358       1.277499996875
       163    1       13.276169403750      18.775338828750       0.000000000000
       164    1       16.226429153240      22.947636179358       0.000000000000
       165    1       14.751299455510      20.861487754392       0.000000000000
       166    1       15.488864304375      18.775338828750       1.277499996875
       167    1       16.963994356135      20.861487754392       1.277499996875
       168    1       14.013734252615      22.947636179358       1.277499996875
       169    1       17.701559205000      18.775338828750       0.000000000000
       170    1       20.651818954490      22.947636179358       0.000000000000
       171    1       19.176689256760      20.861487754392       0.000000000000
       172    1       19.914254105625      18.775338828750       1.277499996875
       173    1       21.389384157385      20.861487754392       1.277499996875
       174    1       18.439124053865      22.947636179358       1.277499996875
       175    1       22.126949006250      18.775338828750       0.000000000000
       176    1       25.077208755740      22.947636179358       0.000000000000
       177    1       23.602079058010      20.861487754392       0.000000000000
       178    1       24.339643906875      18.775338828750       1.277499996875
       179    1       25.814773958635      20.861487754392       1.277499996875
       180    1       22.864513855115      22.947636179358       1.277499996875
       181    1       26.552338807500      18.775338828750       0.000000000000
       182    1       29.502598556990      22.947636179358       0.000000000000
       183    1       28.027468859260      20.861487754392       0.000000000000
       184    1       28.765033708125      18.775338828750       1.277499996875
       185    1       30.240163759885      20.861487754392       1.277499996875
       186    1       27.289903656365      22.947636179358       1.277499996875
       187    1       30.977728608750      18.775338828750       0.000000000000
       188    1       33.927988358240      22.947636179358       0.000000000000
       189    1       32.452858660510      20.861487754392       0.000000000000
       190    1       33.190423509375      18.775338828750       1.277499996875
       191    1       34.665553561135      20.861487754392       1.277499996875
       192    1       31.715293457615      22.947636179358       1.277499996875
       193    1        0.000000000000      25.033785105000       0.000000000000
       194    1        2.950259749490      29.206082455608       0.000000000000
       195    1        1.475130051760      27.119934030642       0.000000000000
       196    1        2.212694900625      25.033785105000       1.277499996875
       197    1        3.687824952385      27.119934030642       1.277499996875
       198    1        0.737564848865      29.206082455608       1.277499996875
       199    1        4.425389801250      25.033785105000       0.000000000000
       200    1        7.375649550740      29.206082455608       0.000000000000
       201    1        5.900519853010      27.119934030642       0.000000000000
       202    1        6.638084701875      25.033785105000       1.277499996875
       203    1        8.113214753635      27.119934030642       1.277499996875
       204    1        5.162954650115      29.206082455608       1.277499996875
       205    1        8.850779602500      25.033785105000       0.000000000000
       206    1       11.801039351990      29.206082455608       0.000000000000
       207    1       10.325909654260      27.119934030642       0.000000000000
       208    1       11.063474503125      25.033785105000       1.277499996875
       209    1       12.538604554885      27.119934030642       1.277499996875
       210    1        9.588344451365      29.206082455608       1.277499996875
       211    1       13.276169403750      25.033785105000       0.000000000000
       212    1       16.226429153240      29.206082455608       0.000000000000
       213    1       14.751299455510      27.119934030642       0.000000000000
       214    1       15.488864304375      25.033785105000       1.277499996875
       215    1       16.963994356135      27.119934030642       1.277499996875
       216    1       14.013734252615      29.206082455608       1.277499996875
       217    1       17.701559205000      25.033785105000       0.000000000000
       218    1       20.651818954490      29.206082455608       0.000000000000
       219    1       19.176689256760      27.119934030642       0.000000000000
       220    1       19.914254105625      25.033785105000       1.277499996875
       221    1       21.389384157385      27.119934030642       1.277499996875
       222    1       18.439124053865      29.206082455608       1.277499996875
       223    1       22.126949006250      25.033785105000       0.000000000000
       224    1       25.077208755740      29.206082455608       0.000000000000
       225    1       23.602079058010      27.119934030642       0.000000000000
       226    1       24.339643906875      25.033785105000       1.277499996875
       227    1       25.814773958635      27.119934030642       1.277499996875
       228    1       22.864513855115      29.206082455608       1.277499996875
       229    1       26.552338807500      25.033785105000       0.000000000000
       230    1       29.502598556990      29.206082455608       0.000000000000
       231    1       28.027468859260      27.119934030642       0.000000000000
       232    1       28.765033708125      25.033785105000       1.277499996875
       233    1       30.240163759885      27.119934030642       1.277499996875
       234    1       27.289903656365      29.206082455608       1.277499996875
       235    1       30.977728608750      25.033785105000       0.000000000000
       236    1       33.927988358240      29.206082455608       0.000000000000
       237    1       32.452858660510      27.119934030642       0.000000000000
       238    1       33.190423509375      25.033785105000       1.277499996875
       239    1       34.665553561135      27.119934030642       1.277499996875
       240    1       31.715293457615      29.206082455608       1.277499996875
       241    1        0.000000000000      31.292231381250       0.000000000000
       242    1        2.950259749490      35.464528731858       0.000000000000
       243    1        1.475130051760      33.378380306892       0.000000000000
       244    1        2.212694900625      31.292231381250       1.277499996875
       245    1        3.687824952385      33.378380306892       1.277499996875
       246    1        0.737564848865      35.464528731858       1.277499996875
       247    1        4.425389801250      31.292231381250       0.000000000000
       248    1        7.375649550740      35.464528731858       0.000000000000
       249    1        5.900519853010      33.378380306892       0.000000000000
       250    1        6.638084701875      31.292231381250       1.277499996875
       251    1        8.113214753635      33.378380306892       1.277499996875
       252    1        5.162954650115      35.464528731858       1.277499996875
       253    1        8.850779602500      31.292231381250       0.000000000000
       254    1       11.801039351990      35.464528731858       0.000000000000
       255    1       10.325909654260      33.378380306892       0.000000000000
       256    1       11.063474503125      31.292231381250       1.277499996875
       257    1       12.538604554885      33.378380306892       1.277499996875
       258    1        9.588344451365      35.464528731858       1.277499996875
       259    1       13.276169403750      31.292231381250       0.000000000000
       260    1       16.226429153240      35.464528731858       0.000000000000
       261    1       14.751299455510      33.378380306892       0.000000000000
       262    1       15.488864304375      31.292231381250       1.277499996875
       263    1       16.963994356135      33.378380306892       1.277499996875
       264    1       14.013734252615      35.464528731858       1.277499996875
       265    1       17.701559205000      31.292231381250       0.000000000000
       266    1       20.651818954490      35.464528731858       0.000000000000
       267    1       19.176689256760      33.378380306892       0.000000000000
       268    1       19.914254105625      31.292231381250       1.277499996875
       269    1       21.389384157385      33.378380306892       1.277499996875
       270    1       18.439124053865      35.464528731858       1.277499996875
       271    1       22.126949006250      31.292231381250       0.000000000000
       272    1       25.077208755740      35.464528731858       0.000000000000
       273    1       23.602079058010      33.378380306892       0.000000000000
       274    1       24.339643906875      31.292231381250       1.277499996875
       275    1       25.814773958635      33.378380306892       1.277499996875
       276    1       22.864513855115      35.464528731858       1.277499996875
       277    1       26.552338807500      31.292231381250       0.000000000000
       278    1       29.502598556990      35.464528731858       0.000000000000
       279    1       28.027468859260      33.378380306892       0.000000000000
       280    1       28.765033708125      31.292231381250       1.277499996875
       281    1       30.240163759885      33.378380306892       1.277499996875
       282    1       27.289903656365      35.464528731858       1.277499996875
       283    1       30.977728608750      31.292231381250       0.000000000000
       284    1       33.927988358240      35.464528731858       0.000000000000
       285    1       32.452858660510      33.378380306892       0.000000000000
       286    1       33.190423509375      31.292231381250       1.277499996875
       287    1       34.665553561135      33.378380306892       1.277499996875
       288    1       31.715293457615      35.464528731858       1.277499996875
       289    1        0.000000000000      37.550677657500       0.000000000000
       290    1        2.950259749490      41.722975008108       0.000000000000
       291    1        1.475130051760      39.636826583142       0.000000000000
       292    1        2.212694900625      37.550677657500       1.277499996875
       293    1        3.687824952385      39.636826583142       1.277499996875
       294    1        0.737564848865      41.722975008108       1.277499996875
       295    1        4.425389801250      37.550677657500       0.000000000000
       296    1        7.375649550740      41.722975008108       0.000000000000
       297    1        5.900519853010      39.636826583142       0.000000000000
       298    1        6.638084701875      37.550677657500       1.277499996875
       299    1        8.113214753635      39.636826583142       1.277499996875
       300    1        5.162954650115      41.722975008108       1.277499996875
       301    1        8.850779602500      37.550677657500       0.000000000000
       302    1       11.801039351990      41.722975008108       0.000000000000
       303    1       10.325909654260      39.636826583142       0.000000000000
       304    1       11.063474503125      37.550677657500       1.277499996875
       305    1       12.538604554885      39.636826583142       1.277499996875
       306    1        9.588344451365      41.722975008108       1.277499996875
       307    1       13.276169403750      37.550677657500       0.000000000000
       308    1       16.226429153240      41.722975008108       0.000000000000
       309    1       14.751299455510      39.636826583142       0.000000000000
       310    1       15.488864304375      37.550677657500       1.277499996875
       311    1       16.963994356135      39.636826583142       1.277499996875
       312    1       14.013734252615      41.722975008108       1.277499996875
       313    1       17.701559205000      37.550677657500       0.000000000000
       314    1       20.651818954490      41.722975008108       0.000000000000
       315    1       19.176689256760      39.636826583142       0.000000000000
       316    1       19.914254105625      37.550677657500       1.277499996875
       317    1       21.389384157385      39.636826583142       1.277499996875
       318    1       18.439124053865      41.722975008108       1.277499996875
       319    1       22.126949006250      37.550677657500       0.000000000000
       320    1       25.077208755740      41.722975008108       0.000000000000
       321    1       23.602079058010      39.636826583142       0.000000000000
       322    1       24.339643906875      37.550677657500       1.277499996875
       323    1       25.814773958635      39.636826583142       1.277499996875
       324    1       22.864513855115      41.722975008108       1.277499996875
       325    1       26.552338807500      37.550677657500       0.000000000000
       326    1       29.502598556990      41.722975008108       0.000000000000
       327    1       28.027468859260      39.636826583142       0.000000000000
       328    1       28.765033708125      37.550677657500       1.277499996875
       329    1       30.240163759885      39.636826583142       1.277499996875
       330    1       27.289903656365      41.722975008108       1.277499996875
       331    1       30.977728608750      37.550677657500       0.000000000000
       332    1       33.927988358240      41.722975008108       0.000000000000
       333    1       32.452858660510      39.636826583142       0.000000000000
       334    1       33.190423509375      37.550677657500       1.277499996875
       335    1       34.665553561135      39.636826583142       1.277499996875
       336    1       31.715293457615      41.722975008108       1.277499996875
       337    1        0.000000000000      43.809123933750       0.000000000000
       338    1        2.950259749490      47.981421284358       0.000000000000
       339    1        1.475130051760      45.895272859392       0.000000000000
       340    1        2.212694900625      43.809123933750       1.277499996875
       341    1        3.687824952385      45.895272859392       1.277499996875
       342    1        0.737564848865      47.981421284358       1.277499996875
       343    1        4.425389801250      43.809123933750       0.000000000000
       344    1        7.375649550740      47.981421284358       0.000000000000
       345    1        5.900519853010      45.895272859392       0.000000000000
       346    1        6.638084701875      43.809123933750       1.277499996875
       347    1        8.113214753635      45.895272859392       1.277499996875
       348    1        5.162954650115      47.981421284358       1.277499996875
       349    1        8.850779602500      43.809123933750       0.000000000000
       350    1       11.801039351990      47.981421284358       0.000000000000
       351    1       10.325909654260      45.895272859392       0.000000000000
       352    1       11.063474503125      43.809123933750       1.277499996875
       353    1       12.538604554885      45.895272859392       1.277499996875
       354    1        9.588344451365      47.981421284358       1.277499996875
       355    1       13.276169403750      43.809123933750       0.000000000000
       356    1       16.226429153240      47.981421284358       0.000000000000
       357    1       14.751299455510      45.895272859392       0.000000000000
       358    1       15.488864304375      43.809123933750       1.277499996875
       359    1       16.963994356135      45.895272859392       1.277499996875
       360    1       14.013734252615      47.981421284358       1.277499996875
       361    1       17.701559205000      43.809123933750       0.000000000000
       362    1       20.651818954490      47.981421284358       0.000000000000
       363    1       19.176689256760      45.895272859392       0.000000000000
       364    1       19.914254105625      43.809123933750       1.277499996875
       365    1       21.389384157385      45.895272859392       1.277499996875
       366    1       18.439124053865      47.981421284358       1.277499996875
       367    1       22.126949006250      43.809123933750       0.000000000000
       368    1       25.077208755740      47.981421284358       0.000000000000
       369    1       23.602079058010      45.895272859392       0.000000000000
       370    1       24.339643906875      43.809123933750       1.277499996875