 # Fcc Cu oriented X=[11-2] Y=[111] Z=[-110].
 
        3072  atoms
           1  atom types
 
      0.000000000000      35.403118410000  xlo xhi
      0.000000000000      50.067570200000  ylo yhi
      0.000000000000      20.439999950000  zlo zhi
 
Masses
 
            1   63.54600000             # Cu
 
Atoms # atomic
 
         1    1        0.000000000000       0.000000000000       0.000000000000
         2    1        2.950259749490       4.172297349775       0.000000000000
         3    1        1.475130051760       2.086148925225       0.000000000000
         4    1        2.212694900625       0.000000000000       1.277499996875
         5    1        3.687824952385       2.086148925225       1.277499996875
         6    1        0.737564848865       4.172297349775       1.277499996875
         7    1        4.425389801250       0.000000000000       0.000000000000
         8    1        7.375649550740       4.172297349775       0.000000000000
         9    1        5.900519853010       2.086148925225       0.000000000000
        10    1        6.638084701875       0.000000000000       1.277499996875
        11    1        8.113214753635       2.086148925225       1.277499996875
        12    1        5.162954650115       4.172297349775       1.277499996875
        13    1        8.850779602500       0.000000000000       0.000000000000
        14    1       11.801039351990       4.172297349775       0.000000000000
        15    1       10.325909654260       2.086148925225       0.000000000000
        16    1       11.063474503125       0.000000000000       1.277499996875
        17    1       12.538604554885       2.086148925225       1.277499996875
        18    1        9.588344451365       4.172297349775       1.277499996875
        19    1       13.276169403750       0.000000000000       0.000000000000
        20    1       16.226429153240       4.172297349775       0.000000000000
        21    1       14.751299455510       2.086148925225       0.000000000000
        22    1       15.488864304375       0.000000000000       1.277499996875
        23    1       16.963994356135       2.086148925225       1.277499996875
        24    1       14.013734252615       4.172297349775       1.277499996875
        25    1       17.701559205000       0.000000000000       0.000000000000
        26    1       20.651818954490       4.172297349775       0.000000000000
        27    1       19.176689256760       2.086148925225       0.000000000000
        28    1       19.914254105625       0.000000000000       1.277499996875
        29    1       21.389384157385       2.086148925225       1.277499996875
        30    1       18.439124053865       4.172297349775       1.277499996875
        31    1       22.126949006250       0.000000000000       0.000000000000
        32    1       25.077208755740       4.172297349775       0.000000000000
        33    1       23.602079058010       2.086148925225       0.000000000000
        34    1       24.339643906875       0.000000000000       1.277499996875
        35    1       25.814773958635       2.086148925225       1.277499996875
        36    1       22.864513855115       4.172297349775       1.277499996875
        37    1       26.552338807500       0.000000000000       0.000000000000
        38    1       29.502598556990       4.172297349775       0.000000000000
        39    1       28.027468859260       2.086148925225       0.000000000000
        40    1       28.765033708125       0.000000000000       1.277499996875
        41    1       30.240163759885       2.086148925225       1.277499996875
        42    1       27.289903656365       4.172297349775       1.277499996875
        43    1       30.977728608750       0.000000000000       0.000000000000
        44    1       33.927988358240       4.172297349775       0.000000000000
        45    1       32.452858660510       2.086148925225       0.000000000000
        46    1       33.190423509375       0.000000000000       1.277499996875
        47    1       34.665553561135       2.086148925225       1.277499996875
        48    1       31.715293457615       4.172297349775       1.277499996875
        49    1        0.000000000000       6.258446275000       0.000000000000
        50    1        2.950259749490      10.430743624775       0.000000000000
        51    1        1.475130051760       8.344595200225       0.000000000000
        52    1        2.212694900625       6.258446275000       1.277499996875
        53    1        3.687824952385       8.344595200225       1.277499996875
        54    1        0.737564848865      10.430743624775       1.277499996875
        55    1        4.425389801250       6.258446275000       0.000000000000
        56    1        7.375649550740      10.430743624775       0.000000000000
        57    1        5.900519853010       8.344595200225       0.000000000000
        58    1        6.638084701875       6.258446275000       1.277499996875
        59    1        8.113214753635       8.344595200225       1.277499996875
        60    1        5.162954650115      10.430743624775       1.277499996875
        61    1        8.850779602500       6.258446275000       0.000000000000
        62    1       11.801039351990      10.430743624775       0.000000000000
        63    1       10.325909654260       8.344595200225       0.000000000000
        64    1       11.063474503125       6.258446275000       1.277499996875
        65    1       12.538604554885       8.344595200225       1.277499996875
        66    1        9.588344451365      10.430743624775       1.277499996875
        67    1       13.276169403750       6.258446275000       0.000000000000
        68    1       16.226429153240      10.430743624775       0.000000000000
        69    1       14.751299455510       8.344595200225       0.000000000000
        70    1       15.488864304375       6.258446275000       1.277499996875
        71    1       16.963994356135       8.344595200225       1.277499996875
        72    1       14.013734252615      10.430743624775       1.277499996875
        73    1       17.701559205000       6.258446275000       0.000000000000
        74    1       20.651818954490      10.430743624775       0.000000000000
        75    1       19.176689256760       8.344595200225       0.000000000000
        76    1       19.914254105625       6.258446275000       1.277499996875
        77    1       21.389384157385       8.344595200225       1.277499996875
        78    1       18.439124053865      10.430743624775       1.277499996875
        79    1       22.126949006250       6.258446275000       0.000000000000
        80    1       25.077208755740      10.430743624775       0.000000000000
        81    1       23.602079058010       8.344595200225       0.000000000000
        82    1       24.339643906875       6.258446275000       1.277499996875
        83    1       25.814773958635       8.344595200225       1.277499996875
        84    1       22.864513855115      10.430743624775       1.277499996875
        85    1       26.552338807500       6.258446275000       0.000000000000
        86    1       29.502598556990      10.430743624775       0.000000000000
        87    1       28.027468859260       8.344595200225       0.000000000000
        88    1       28.765033708125       6.258446275000       1.277499996875
        89    1       30.240163759885       8.344595200225       1.277499996875
        90    1       27.289903656365      10.430743624775       1.277499996875
        91    1       30.977728608750       6.258446275000       0.000000000000
        92    1       33.927988358240      10.430743624775       0.000000000000
        93    1       32.452858660510       8.344595200225       0.000000000000
        94    1       33.190423509375       6.258446275000       1.277499996875
        95    1       34.665553561135       8.344595200225       1.277499996875
        96    1       31.715293457615      10.430743624775       1.277499996875
        97    1        0.000000000000      12.516892550000       0.000000000000
        98    1        2.950259749490      16.689189899775       0.000000000000
        99    1        1.475130051760      14.603041475225       0.000000000000
       100    1        2.212694900625      12.516892550000       1.277499996875
       101    1        3.687824952385      14.603041475225       1.277499996875
       102    1        0.737564848865      16.689189899775       1.277499996875
       103    1        4.425389801250      12.516892550000       0.000000000000
       104    1        7.375649550740      16.689189899775       0.000000000000
       105    1        5.900519853010      14.603041475225       0.000000000000
       106    1        6.638084701875      12.516892550000       1.277499996875
       107    1        8.113214753635      14.603041475225       1.277499996875
       108    1        5.162954650115      16.689189899775       1.277499996875
       109    1        8.850779602500      12.516892550000       0.000000000000
       110    1       11.801039351990      16.689189899775       0.000000000000
       111    1       10.325909654260      14.603041475225       0.000000000000
       112    1       11.063474503125      12.516892550000       1.277499996875
       113    1       12.538604554885      14.603041475225       1.277499996875
       114    1        9.588344451365      16.689189899775       1.277499996875
       115    1       13.276169403750      12.516892550000       0.000000000000
       116    1       16.226429153240      16.689189899775       0.000000000000
       117    1       14.751299455510      14.603041475225       0.000000000000
       118    1       15.488864304375      12.516892550000       1.277499996875
       119    1       16.963994356135      14.603041475225       1.277499996875
       120    1       14.013734252615      16.689189899775       1.277499996875
       121    1       17.701559205000      12.516892550000       0.000000000000
       122    1       20.651818954490      16.689189899775       0.000000000000
       123    1       19.176689256760      14.603041475225       0.000000000000
       124    1       19.914254105625      12.516892550000       1.277499996875
       125    1       21.389384157385      14.603041475225       1.277499996875
       126    1       18.439124053865      16.689189899775       1.277499996875
       127    1       22.126949006250      12.516892550000       0.000000000000
       128    1       25.077208755740      16.689189899775       0.000000000000
       129    1       23.602079058010      14.603041475225       0.000000000000
       130    1       24.339643906875      12.516892550000       1.277499996875
       131    1       25.814773958635      14.603041475225       1.277499996875
       132    1       22.864513855115      16.689189899775       1.277499996875
       133    1       26.552338807500      12.516892550000       0.000000000000
       134    1       29.502598556990      16.689189899775       0.000000000000
       135    1       28.027468859260      14.603041475225       0.000000000000
       136    1       28.765033708125      12.516892550000       1.277499996875
       137    1       30.240163759885      14.603041475225       1.277499996875
       138    1       27.289903656365      16.689189899775       1.277499996875
       139    1       30.977728608750      12.516892550000       0.000000000000
       140    1       33.927988358240      16.689189899775       0.000000000000
       141    1       32.452858660510      14.603041475225       0.000000000000
       142    1       33.190423509375      12.516892550000       1.277499996875
       143    1       34.665553561135      14.603041475225       1.277499996875
       144    1       31.715293457615      16.689189899775       1.277499996875
       145    1        0.000000000000      18.775338825000       0.000000000000
       146    1        2.950259749490      22.947636174775       0.000000000000
       147    1        1.475130051760      20.861487750225       0.000000000000
       148    1        2.212694900625      18.775338825000       1.277499996875
       149    1        3.687824952385      20.861487750225       1.277499996875
       150    1        0.737564848865      22.947636174775       1.277499996875
       151    1        4.425389801250      18.775338825000       0.000000000000
       152    1        7.375649550740      22.947636174775       0.000000000000
       153    1        5.900519853010      20.861487750225       0.000000000000
       154    1        6.638084701875      18.775338825000       1.277499996875
       155    1        8.113214753635      20.861487750225       1.277499996875
       156    1        5.162954650115      22.947636174775       1.277499996875
       157    1        8.850779602500      18.775338825000       0.000000000000
       158    1       11.801039351990      22.947636174775       0.000000000000
       159    1       10.325909654260      20.861487750225       0.000000000000
       160    1       11.063474503125      18.775338825000       1.277499996875
       161    1       12.538604554885      20.861487750225       1.277499996875
       162    1        9.588344451365      22.947636174775       1.277499996875
       163    1       13.276169403750      18.775338825000       0.000000000000
       164    1       16.226429153240      22.947636174775       0.000000000000
       165    1       14.751299455510      20.861487750225       0.000000000000
       166    1       15.488864304375      18.775338825000       1.277499996875
       167    1       16.963994356135      20.861487750225       1.277499996875
       168    1       14.013734252615      22.947636174775       1.277499996875
       169    1       17.701559205000      18.775338825000       0.000000000000
       170    1       20.651818954490      22.947636174775       0.000000000000
       171    1       19.176689256760      20.861487750225       0.000000000000
       172    1       19.914254105625      18.775338825000       1.277499996875
       173    1       21.389384157385      20.861487750225       1.277499996875
       174    1       18.439124053865      22.947636174775       1.277499996875
       175    1       22.126949006250      18.775338825000       0.000000000000
       176    1       25.077208755740      22.947636174775       0.000000000000
       177    1       23.602079058010      20.861487750225       0.000000000000
       178    1       24.339643906875      18.775338825000       1.277499996875
       179    1       25.814773958635      20.861487750225       1.277499996875
       180    1       22.864513855115      22.947636174775       1.277499996875
       181    1       26.552338807500      18.775338825000       0.000000000000
       182    1       29.502598556990      22.947636174775       0.000000000000
       183    1       28.027468859260      20.861487750225       0.000000000000
       184    1       28.765033708125      18.775338825000       1.277499996875
       185    1       30.240163759885      20.861487750225       1.277499996875
       186    1       27.289903656365      22.947636174775       1.277499996875
       187    1       30.977728608750      18.775338825000       0.000000000000
       188    1       33.927988358240      22.947636174775       0.000000000000
       189    1       32.452858660510      20.861487750225       0.000000000000
       190    1       33.190423509375      18.775338825000       1.277499996875
       191    1       34.665553561135      20.861487750225       1.277499996875
       192    1       31.715293457615      22.947636174775       1.277499996875
       193    1        0.000000000000       0.000000000000       2.554999993750
       194    1        2.950259749490       4.172297349775       2.554999993750
       195    1        1.475130051760       2.086148925225       2.554999993750
       196    1        2.212694900625       0.000000000000       3.832499990625
       197    1        3.687824952385       2.086148925225       3.832499990625
       198    1        0.737564848865       4.172297349775       3.832499990625
       199    1        4.425389801250       0.000000000000       2.554999993750
       200    1        7.375649550740       4.172297349775       2.554999993750
       201    1        5.900519853010       2.086148925225       2.554999993750
       202    1        6.638084701875       0.000000000000       3.832499990625
       203    1        8.113214753635       2.086148925225       3.832499990625
       204    1        5.162954650115       4.172297349775       3.832499990625
       205    1        8.850779602500       0.000000000000       2.554999993750
       206    1       11.801039351990       4.172297349775       2.554999993750
       207    1       10.325909654260       2.086148925225       2.554999993750
       208    1       11.063474503125       0.000000000000       3.832499990625
       209    1       12.538604554885       2.086148925225       3.832499990625
       210    1        9.588344451365       4.172297349775       3.832499990625
       211    1       13.276169403750       0.000000000000       2.554999993750
       212    1       16.226429153240       4.172297349775       2.554999993750
       213    1       14.751299455510       2.086148925225       2.554999993750
       214    1       15.488864304375       0.000000000000       3.832499990625
       215    1       16.963994356135       2.086148925225       3.832499990625
       216    1       14.013734252615       4.172297349775       3.832499990625
       217    1       17.701559205000       0.000000000000       2.554999993750
       218    1       20.651818954490       4.172297349775       2.554999993750
       219    1       19.176689256760       2.086148925225       2.554999993750
       220    1       19.914254105625       0.000000000000       3.832499990625
       221    1       21.389384157385       2.086148925225       3.832499990625
       222    1       18.439124053865       4.172297349775       3.832499990625
       223    1       22.126949006250       0.000000000000       2.554999993750
       224    1       25.077208755740       4.172297349775       2.554999993750
       225    1       23.602079058010       2.086148925225       2.554999993750
       226    1       24.339643906875       0.000000000000       3.832499990625
       227    1       25.814773958635       2.086148925225       3.832499990625
       228    1       22.864513855115       4.172297349775       3.832499990625
       229    1       26.552338807500       0.000000000000       2.554999993750
       230    1       29.502598556990       4.172297349775       2.554999993750
       231    1       28.027468859260       2.086148925225       2.554999993750
       232    1       28.765033708125       0.000000000000       3.832499990625
       233    1       30.240163759885       2.086148925225       3.832499990625
       234    1       27.289903656365       4.172297349775       3.832499990625
       235    1       30.977728608750       0.000000000000       2.554999993750
       236    1       33.927988358240       4.172297349775       2.554999993750
       237    1       32.452858660510       2.086148925225       2.554999993750
       238    1       33.190423509375       0.000000000000       3.832499990625
       239    1       34.665553561135       2.086148925225       3.832499990625
       240    1       31.715293457615       4.172297349775       3.832499990625
       241    1        0.000000000000       6.258446275000       2.554999993750
       242    1        2.950259749490      10.430743624775       2.554999993750
       243    1        1.475130051760       8.344595200225       2.554999993750
       244    1        2.212694900625       6.258446275000       3.832499990625
       245    1        3.687824952385       8.344595200225       3.832499990625
       246    1        0.737564848865      10.430743624775       3.832499990625
       247    1        4.425389801250       6.258446275000       2.554999993750
       248    1        7.375649550740      10.430743624775       2.554999993750
       249    1        5.900519853010       8.344595200225       2.554999993750
       250    1        6.638084701875       6.258446275000       3.832499990625
       251    1        8.113214753635       8.344595200225       3.832499990625
       252    1        5.162954650115      10.430743624775       3.832499990625
       253    1        8.850779602500       6.258446275000       2.554999993750
       254    1       11.801039351990      10.430743624775       2.554999993750
       255    1       10.325909654260       8.344595200225       2.554999993750
       256    1       11.063474503125       6.258446275000       3.832499990625
       257    1       12.538604554885       8.344595200225       3.832499990625
       258    1        9.588344451365      10.430743624775       3.832499990625
       259    1       13.276169403750       6.258446275000       2.554999993750
       260    1       16.226429153240      10.430743624775       2.554999993750
       261    1       14.751299455510       8.344595200225       2.554999993750
       262    1       15.488864304375       6.258446275000       3.832499990625
       263    1       16.963994356135       8.344595200225       3.832499990625
       264    1       14.013734252615      10.430743624775       3.832499990625
       265    1       17.701559205000       6.258446275000       2.554999993750
       266    1       20.651818954490      10.430743624775       2.554999993750
       267    1       19.176689256760       8.344595200225       2.554999993750
       268    1       19.914254105625       6.258446275000       3.832499990625
       269    1       21.389384157385       8.344595200225       3.832499990625
       270    1       18.439124053865      10.430743624775       3.832499990625
       271    1       22.126949006250       6.258446275000       2.554999993750
       272    1       25.077208755740      10.430743624775       2.554999993750
       273    1       23.602079058010       8.344595200225       2.554999993750
       274    1       24.339643906875       6.258446275000       3.832499990625
       275    1       25.814773958635       8.344595200225       3.832499990625
       276    1       22.864513855115      10.430743624775       3.832499990625
       277    1       26.552338807500       6.258446275000       2.554999993750
       278    1       29.502598556990      10.430743624775       2.554999993750
       279    1       28.027468859260       8.344595200225       2.554999993750
       280    1       28.765033708125       6.258446275000       3.832499990625
       281    1       30.240163759885       8.344595200225       3.832499990625
       282    1       27.289903656365      10.430743624775       3.832499990625
       283    1       30.977728608750       6.258446275000       2.554999993750
       284    1       33.927988358240      10.430743624775       2.554999993750
       285    1       32.452858660510       8.344595200225       2.554999993750
       286    1       33.190423509375       6.258446275000       3.832499990625
       287    1       34.665553561135       8.344595200225       3.832499990625
       288    1       31.715293457615      10.430743624775       3.832499990625
       289    1        0.000000000000      12.516892550000       2.554999993750
       290    1        2.950259749490      16.689189899775       2.554999993750
       291    1        1.475130051760      14.603041475225       2.554999993750
       292    1        2.212694900625      12.516892550000       3.832499990625
       293    1        3.687824952385      14.603041475225       3.832499990625
       294    1        0.737564848865      16.689189899775       3.832499990625
       295    1        4.425389801250      12.516892550000       2.554999993750
       296    1        7.375649550740      16.689189899775       2.554999993750
       297    1        5.900519853010      14.603041475225       2.554999993750
       298    1        6.638084701875      12.516892550000       3.832499990625
       299    1        8.113214753635      14.603041475225       3.832499990625
       300    1        5.162954650115      16.689189899775       3.832499990625
       301    1        8.850779602500      12.516892550000       2.554999993750
       302    1       11.801039351990      16.689189899775       2.554999993750
       303    1       10.325909654260      14.603041475225       2.554999993750
       304    1       11.063474503125      12.516892550000       3.832499990625
       305    1       12.538604554885      14.603041475225       3.832499990625
       306    1        9.588344451365      16.689189899775       3.832499990625
       307    1       13.276169403750      12.516892550000       2.554999993750
       308    1       16.226429153240      16.689189899775       2.554999993750
       309    1       14.751299455510      14.603041475225       2.554999993750
       310    1       15.488864304375      12.516892550000       3.832499990625
       311    1       16.963994356135      14.603041475225       3.832499990625
       312    1       14.013734252615      16.689189899775       3.832499990625
       313    1       17.701559205000      12.516892550000       2.554999993750
       314    1       20.651818954490      16.689189899775       2.554999993750
       315    1       19.176689256760      14.603041475225       2.554999993750
       316    1       19.914254105625      12.516892550000       3.832499990625
       317    1       21.389384157385      14.603041475225       3.832499990625
       318    1       18.439124053865      16.689189899775       3.832499990625
       319    1       22.126949006250      12.516892550000       2.554999993750
       320    1       25.077208755740      16.689189899775       2.554999993750
       321    1       23.602079058010      14.603041475225       2.554999993750
       322    1       24.339643906875      12.516892550000       3.832499990625
       323    1       25.814773958635      14.603041475225       3.832499990625
       324    1       22.864513855115      16.689189899775       3.832499990625
       325    1       26.552338807500      12.516892550000       2.554999993750
       326    1       29.502598556990      16.689189899775       2.554999993750
       327    1       28.027468859260      14.603041475225       2.554999993750
       328    1       28.765033708125      12.516892550000       3.832499990625
       329    1       30.240163759885      14.603041475225       3.832499990625
       330    1       27.289903656365      16.689189899775       3.832499990625
       331    1       30.977728608750      12.516892550000       2.554999993750
       332    1       33.927988358240      16.689189899775       2.554999993750
       333    1       32.452858660510      14.603041475225       2.554999993750
       334    1       33.190423509375      12.516892550000       3.832499990625
       335    1       34.665553561135      14.603041475225       3.832499990625
       336    1       31.715293457615      16.689189899775       3.832499990625
       337    1        0.000000000000      18.775338825000       2.554999993750
       338    1        2.950259749490      22.947636174775       2.554999993750
       339    1        1.475130051760      20.861487750225       2.554999993750
       340    1        2.212694900625      18.775338825000       3.832499990625
       341    1        3.687824952385      20.861487750225       3.832499990625
       342    1        0.737564848865      22.947636174775       3.832499990625
       343    1        4.425389801250      18.775338825000       2.554999993750
       344    1        7.375649550740      22.947636174775       2.554999993750
       345    1        5.900519853010      20.861487750225       2.554999993750
       346    1        6.638084701875      18.775338825000       3.832499990625
       347    1        8.113214753635      20.861487750225       3.832499990625
       348    1        5.162954650115      22.947636174775       3.832499990625
       349    1        8.850779602500      18.775338825000       2.554999993750
       350    1       11.801039351990      22.947636174775       2.554999993750
       351    1       10.325909654260      20.861487750225       2.554999993750
       352    1       11.063474503125      18.775338825000       3.832499990625
       353    1       12.538604554885      20.861487750225       3.832499990625
       354    1        9.588344451365      22.947636174775       3.832499990625
       355    1       13.276169403750      18.775338825000       2.554999993750
       356    1       16.226429153240      22.947636174775       2.554999993750
       357    1       14.751299455510      20.861487750225       2.554999993750
       358    1       15.488864304375      18.775338825000       3.832499990625
       359    1       16.963994356135      20.861487750225       3.832499990625
       360    1       14.013734252615      22.947636174775       3.832499990625
       361    1       17.701559205000      18.775338825000       2.554999993750
       362    1       20.651818954490      22.947636174775       2.554999993750
       363    1       19.176689256760      20.861487750225       2.554999993750
       364    1       19.914254105625      18.775338825000       3.832499990625
       365    1       21.389384157385      20.861487750225       3.832499990625
       366    1       18.439124053865      22.947636174775       3.832499990625
       367    1       22.126949006250      18.775338825000       2.554999993750
       368    1       25.077208755740      22.947636174775       2.554999993750
       369    1       23.602079058010      20.861487750225       2.554999993750
       370    1       24.339643906875      18.775338825000       3.832499990625