 # Fcc Cu oriented X=[11-2] Y=[111] Z=[-110].
 
        3072  atoms
           1  atom types
 
      0.000000000000      35.546995150000  xlo xhi
      0.000000000000      50.271042640000  ylo yhi
      0.000000000000      20.523067220000  zlo zhi
 
Masses
 
            1   63.54600000             # Cu
 
Atoms # atomic
 
         1    1        0.000000000000       0.000000000000       0.000000000000
         2    1        2.962249477343       4.189253385763       0.000000000000
         3    1        1.481124916407       2.094626944237       0.000000000000
         4    1        2.221687196875       0.000000000000       1.282691701250
         5    1        3.702812113282       2.094626944237       1.282691701250
         6    1        0.740562280468       4.189253385763       1.282691701250
         7    1        4.443374393750       0.000000000000       0.000000000000
         8    1        7.405623871093       4.189253385763       0.000000000000
         9    1        5.924499310157       2.094626944237       0.000000000000
        10    1        6.665061590625       0.000000000000       1.282691701250
        11    1        8.146186507032       2.094626944237       1.282691701250
        12    1        5.183936674218       4.189253385763       1.282691701250
        13    1        8.886748787500       0.000000000000       0.000000000000
        14    1       11.848998264843       4.189253385763       0.000000000000
        15    1       10.367873703907       2.094626944237       0.000000000000
        16    1       11.108435984375       0.000000000000       1.282691701250
        17    1       12.589560900782       2.094626944237       1.282691701250
        18    1        9.627311067968       4.189253385763       1.282691701250
        19    1       13.330123181250       0.000000000000       0.000000000000
        20    1       16.292372658593       4.189253385763       0.000000000000
        21    1       14.811248097657       2.094626944237       0.000000000000
        22    1       15.551810378125       0.000000000000       1.282691701250
        23    1       17.032935294532       2.094626944237       1.282691701250
        24    1       14.070685461718       4.189253385763       1.282691701250
        25    1       17.773497575000       0.000000000000       0.000000000000
        26    1       20.735747052343       4.189253385763       0.000000000000
        27    1       19.254622491407       2.094626944237       0.000000000000
        28    1       19.995184771875       0.000000000000       1.282691701250
        29    1       21.476309688282       2.094626944237       1.282691701250
        30    1       18.514059855468       4.189253385763       1.282691701250
        31    1       22.216871968750       0.000000000000       0.000000000000
        32    1       25.179121446093       4.189253385763       0.000000000000
        33    1       23.697996885157       2.094626944237       0.000000000000
        34    1       24.438559165625       0.000000000000       1.282691701250
        35    1       25.919684082032       2.094626944237       1.282691701250
        36    1       22.957434249218       4.189253385763       1.282691701250
        37    1       26.660246362500       0.000000000000       0.000000000000
        38    1       29.622495839843       4.189253385763       0.000000000000
        39    1       28.141371278907       2.094626944237       0.000000000000
        40    1       28.881933559375       0.000000000000       1.282691701250
        41    1       30.363058475782       2.094626944237       1.282691701250
        42    1       27.400808642968       4.189253385763       1.282691701250
        43    1       31.103620756250       0.000000000000       0.000000000000
        44    1       34.065870233593       4.189253385763       0.000000000000
        45    1       32.584745672657       2.094626944237       0.000000000000
        46    1       33.325307953125       0.000000000000       1.282691701250
        47    1       34.806432869532       2.094626944237       1.282691701250
        48    1       31.844183036718       4.189253385763       1.282691701250
        49    1        0.000000000000       6.283880330000       0.000000000000
        50    1        2.962249477343      10.473133715763       0.000000000000
        51    1        1.481124916407       8.378507274237       0.000000000000
        52    1        2.221687196875       6.283880330000       1.282691701250
        53    1        3.702812113282       8.378507274237       1.282691701250
        54    1        0.740562280468      10.473133715763       1.282691701250
        55    1        4.443374393750       6.283880330000       0.000000000000
        56    1        7.405623871093      10.473133715763       0.000000000000
        57    1        5.924499310157       8.378507274237       0.000000000000
        58    1        6.665061590625       6.283880330000       1.282691701250
        59    1        8.146186507032       8.378507274237       1.282691701250
        60    1        5.183936674218      10.473133715763       1.282691701250
        61    1        8.886748787500       6.283880330000       0.000000000000
        62    1       11.848998264843      10.473133715763       0.000000000000
        63    1       10.367873703907       8.378507274237       0.000000000000
        64    1       11.108435984375       6.283880330000       1.282691701250
        65    1       12.589560900782       8.378507274237       1.282691701250
        66    1        9.627311067968      10.473133715763       1.282691701250
        67    1       13.330123181250       6.283880330000       0.000000000000
        68    1       16.292372658593      10.473133715763       0.000000000000
        69    1       14.811248097657       8.378507274237       0.000000000000
        70    1       15.551810378125       6.283880330000       1.282691701250
        71    1       17.032935294532       8.378507274237       1.282691701250
        72    1       14.070685461718      10.473133715763       1.282691701250
        73    1       17.773497575000       6.283880330000       0.000000000000
        74    1       20.735747052343      10.473133715763       0.000000000000
        75    1       19.254622491407       8.378507274237       0.000000000000
        76    1       19.995184771875       6.283880330000       1.282691701250
        77    1       21.476309688282       8.378507274237       1.282691701250
        78    1       18.514059855468      10.473133715763       1.282691701250
        79    1       22.216871968750       6.283880330000       0.000000000000
        80    1       25.179121446093      10.473133715763       0.000000000000
        81    1       23.697996885157       8.378507274237       0.000000000000
        82    1       24.438559165625       6.283880330000       1.282691701250
        83    1       25.919684082032       8.378507274237       1.282691701250
        84    1       22.957434249218      10.473133715763       1.282691701250
        85    1       26.660246362500       6.283880330000       0.000000000000
        86    1       29.622495839843      10.473133715763       0.000000000000
        87    1       28.141371278907       8.378507274237       0.000000000000
        88    1       28.881933559375       6.283880330000       1.282691701250
        89    1       30.363058475782       8.378507274237       1.282691701250
        90    1       27.400808642968      10.473133715763       1.282691701250
        91    1       31.103620756250       6.283880330000       0.000000000000
        92    1       34.065870233593      10.473133715763       0.000000000000
        93    1       32.584745672657       8.378507274237       0.000000000000
        94    1       33.325307953125       6.283880330000       1.282691701250
        95    1       34.806432869532       8.378507274237       1.282691701250
        96    1       31.844183036718      10.473133715763       1.282691701250
        97    1        0.000000000000      12.567760660000       0.000000000000
        98    1        2.962249477343      16.757014045763       0.000000000000
        99    1        1.481124916407      14.662387604237       0.000000000000
       100    1        2.221687196875      12.567760660000       1.282691701250
       101    1        3.702812113282      14.662387604237       1.282691701250
       102    1        0.740562280468      16.757014045763       1.282691701250
       103    1        4.443374393750      12.567760660000       0.000000000000
       104    1        7.405623871093      16.757014045763       0.000000000000
       105    1        5.924499310157      14.662387604237       0.000000000000
       106    1        6.665061590625      12.567760660000       1.282691701250
       107    1        8.146186507032      14.662387604237       1.282691701250
       108    1        5.183936674218      16.757014045763       1.282691701250
       109    1        8.886748787500      12.567760660000       0.000000000000
       110    1       11.848998264843      16.757014045763       0.000000000000
       111    1       10.367873703907      14.662387604237       0.000000000000
       112    1       11.108435984375      12.567760660000       1.282691701250
       113    1       12.589560900782      14.662387604237       1.282691701250
       114    1        9.627311067968      16.757014045763       1.282691701250
       115    1       13.330123181250      12.567760660000       0.000000000000
       116    1       16.292372658593      16.757014045763       0.000000000000
       117    1       14.811248097657      14.662387604237       0.000000000000
       118    1       15.551810378125      12.567760660000       1.282691701250
       119    1       17.032935294532      14.662387604237       1.282691701250
       120    1       14.070685461718      16.757014045763       1.282691701250
       121    1       17.773497575000      12.567760660000       0.000000000000
       122    1       20.735747052343      16.757014045763       0.000000000000
       123    1       19.254622491407      14.662387604237       0.000000000000
       124    1       19.995184771875      12.567760660000       1.282691701250
       125    1       21.476309688282      14.662387604237       1.282691701250
       126    1       18.514059855468      16.757014045763       1.282691701250
       127    1       22.216871968750      12.567760660000       0.000000000000
       128    1       25.179121446093      16.757014045763       0.000000000000
       129    1       23.697996885157      14.662387604237       0.000000000000
       130    1       24.438559165625      12.567760660000       1.282691701250
       131    1       25.919684082032      14.662387604237       1.282691701250
       132    1       22.957434249218      16.757014045763       1.282691701250
       133    1       26.660246362500      12.567760660000       0.000000000000
       134    1       29.622495839843      16.757014045763       0.000000000000
       135    1       28.141371278907      14.662387604237       0.000000000000
       136    1       28.881933559375      12.567760660000       1.282691701250
       137    1       30.363058475782      14.662387604237       1.282691701250
       138    1       27.400808642968      16.757014045763       1.282691701250
       139    1       31.103620756250      12.567760660000       0.000000000000
       140    1       34.065870233593      16.757014045763       0.000000000000
       141    1       32.584745672657      14.662387604237       0.000000000000
       142    1       33.325307953125      12.567760660000       1.282691701250
       143    1       34.806432869532      14.662387604237       1.282691701250
       144    1       31.844183036718      16.757014045763       1.282691701250
       145    1        0.000000000000      18.851640990000       0.000000000000
       146    1        2.962249477343      23.040894375763       0.000000000000
       147    1        1.481124916407      20.946267934237       0.000000000000
       148    1        2.221687196875      18.851640990000       1.282691701250
       149    1        3.702812113282      20.946267934237       1.282691701250
       150    1        0.740562280468      23.040894375763       1.282691701250
       151    1        4.443374393750      18.851640990000       0.000000000000
       152    1        7.405623871093      23.040894375763       0.000000000000
       153    1        5.924499310157      20.946267934237       0.000000000000
       154    1        6.665061590625      18.851640990000       1.282691701250
       155    1        8.146186507032      20.946267934237       1.282691701250
       156    1        5.183936674218      23.040894375763       1.282691701250
       157    1        8.886748787500      18.851640990000       0.000000000000
       158    1       11.848998264843      23.040894375763       0.000000000000
       159    1       10.367873703907      20.946267934237       0.000000000000
       160    1       11.108435984375      18.851640990000       1.282691701250
       161    1       12.589560900782      20.946267934237       1.282691701250
       162    1        9.627311067968      23.040894375763       1.282691701250
       163    1       13.330123181250      18.851640990000       0.000000000000
       164    1       16.292372658593      23.040894375763       0.000000000000
       165    1       14.811248097657      20.946267934237       0.000000000000
       166    1       15.551810378125      18.851640990000       1.282691701250
       167    1       17.032935294532      20.946267934237       1.282691701250
       168    1       14.070685461718      23.040894375763       1.282691701250
       169    1       17.773497575000      18.851640990000       0.000000000000
       170    1       20.735747052343      23.040894375763       0.000000000000
       171    1       19.254622491407      20.946267934237       0.000000000000
       172    1       19.995184771875      18.851640990000       1.282691701250
       173    1       21.476309688282      20.946267934237       1.282691701250
       174    1       18.514059855468      23.040894375763       1.282691701250
       175    1       22.216871968750      18.851640990000       0.000000000000
       176    1       25.179121446093      23.040894375763       0.000000000000
       177    1       23.697996885157      20.946267934237       0.000000000000
       178    1       24.438559165625      18.851640990000       1.282691701250
       179    1       25.919684082032      20.946267934237       1.282691701250
       180    1       22.957434249218      23.040894375763       1.282691701250
       181    1       26.660246362500      18.851640990000       0.000000000000
       182    1       29.622495839843      23.040894375763       0.000000000000
       183    1       28.141371278907      20.946267934237       0.000000000000
       184    1       28.881933559375      18.851640990000       1.282691701250
       185    1       30.363058475782      20.946267934237       1.282691701250
       186    1       27.400808642968      23.040894375763       1.282691701250
       187    1       31.103620756250      18.851640990000       0.000000000000
       188    1       34.065870233593      23.040894375763       0.000000000000
       189    1       32.584745672657      20.946267934237       0.000000000000
       190    1       33.325307953125      18.851640990000       1.282691701250
       191    1       34.806432869532      20.946267934237       1.282691701250
       192    1       31.844183036718      23.040894375763       1.282691701250
       193    1        0.000000000000       0.000000000000       2.565383402500
       194    1        2.962249477343       4.189253385763       2.565383402500
       195    1        1.481124916407       2.094626944237       2.565383402500
       196    1        2.221687196875       0.000000000000       3.848075103750
       197    1        3.702812113282       2.094626944237       3.848075103750
       198    1        0.740562280468       4.189253385763       3.848075103750
       199    1        4.443374393750       0.000000000000       2.565383402500
       200    1        7.405623871093       4.189253385763       2.565383402500
       201    1        5.924499310157       2.094626944237       2.565383402500
       202    1        6.665061590625       0.000000000000       3.848075103750
       203    1        8.146186507032       2.094626944237       3.848075103750
       204    1        5.183936674218       4.189253385763       3.848075103750
       205    1        8.886748787500       0.000000000000       2.565383402500
       206    1       11.848998264843       4.189253385763       2.565383402500
       207    1       10.367873703907       2.094626944237       2.565383402500
       208    1       11.108435984375       0.000000000000       3.848075103750
       209    1       12.589560900782       2.094626944237       3.848075103750
       210    1        9.627311067968       4.189253385763       3.848075103750
       211    1       13.330123181250       0.000000000000       2.565383402500
       212    1       16.292372658593       4.189253385763       2.565383402500
       213    1       14.811248097657       2.094626944237       2.565383402500
       214    1       15.551810378125       0.000000000000       3.848075103750
       215    1       17.032935294532       2.094626944237       3.848075103750
       216    1       14.070685461718       4.189253385763       3.848075103750
       217    1       17.773497575000       0.000000000000       2.565383402500
       218    1       20.735747052343       4.189253385763       2.565383402500
       219    1       19.254622491407       2.094626944237       2.565383402500
       220    1       19.995184771875       0.000000000000       3.848075103750
       221    1       21.476309688282       2.094626944237       3.848075103750
       222    1       18.514059855468       4.189253385763       3.848075103750
       223    1       22.216871968750       0.000000000000       2.565383402500
       224    1       25.179121446093       4.189253385763       2.565383402500
       225    1       23.697996885157       2.094626944237       2.565383402500
       226    1       24.438559165625       0.000000000000       3.848075103750
       227    1       25.919684082032       2.094626944237       3.848075103750
       228    1       22.957434249218       4.189253385763       3.848075103750
       229    1       26.660246362500       0.000000000000       2.565383402500
       230    1       29.622495839843       4.189253385763       2.565383402500
       231    1       28.141371278907       2.094626944237       2.565383402500
       232    1       28.881933559375       0.000000000000       3.848075103750
       233    1       30.363058475782       2.094626944237       3.848075103750
       234    1       27.400808642968       4.189253385763       3.848075103750
       235    1       31.103620756250       0.000000000000       2.565383402500
       236    1       34.065870233593       4.189253385763       2.565383402500
       237    1       32.584745672657       2.094626944237       2.565383402500
       238    1       33.325307953125       0.000000000000       3.848075103750
       239    1       34.806432869532       2.094626944237       3.848075103750
       240    1       31.844183036718       4.189253385763       3.848075103750
       241    1        0.000000000000       6.283880330000       2.565383402500
       242    1        2.962249477343      10.473133715763       2.565383402500
       243    1        1.481124916407       8.378507274237       2.565383402500
       244    1        2.221687196875       6.283880330000       3.848075103750
       245    1        3.702812113282       8.378507274237       3.848075103750
       246    1        0.740562280468      10.473133715763       3.848075103750
       247    1        4.443374393750       6.283880330000       2.565383402500
       248    1        7.405623871093      10.473133715763       2.565383402500
       249    1        5.924499310157       8.378507274237       2.565383402500
       250    1        6.665061590625       6.283880330000       3.848075103750
       251    1        8.146186507032       8.378507274237       3.848075103750
       252    1        5.183936674218      10.473133715763       3.848075103750
       253    1        8.886748787500       6.283880330000       2.565383402500
       254    1       11.848998264843      10.473133715763       2.565383402500
       255    1       10.367873703907       8.378507274237       2.565383402500
       256    1       11.108435984375       6.283880330000       3.848075103750
       257    1       12.589560900782       8.378507274237       3.848075103750
       258    1        9.627311067968      10.473133715763       3.848075103750
       259    1       13.330123181250       6.283880330000       2.565383402500
       260    1       16.292372658593      10.473133715763       2.565383402500
       261    1       14.811248097657       8.378507274237       2.565383402500
       262    1       15.551810378125       6.283880330000       3.848075103750
       263    1       17.032935294532       8.378507274237       3.848075103750
       264    1       14.070685461718      10.473133715763       3.848075103750
       265    1       17.773497575000       6.283880330000       2.565383402500
       266    1       20.735747052343      10.473133715763       2.565383402500
       267    1       19.254622491407       8.378507274237       2.565383402500
       268    1       19.995184771875       6.283880330000       3.848075103750
       269    1       21.476309688282       8.378507274237       3.848075103750
       270    1       18.514059855468      10.473133715763       3.848075103750
       271    1       22.216871968750       6.283880330000       2.565383402500
       272    1       25.179121446093      10.473133715763       2.565383402500
       273    1       23.697996885157       8.378507274237       2.565383402500
       274    1       24.438559165625       6.283880330000       3.848075103750
       275    1       25.919684082032       8.378507274237       3.848075103750
       276    1       22.957434249218      10.473133715763       3.848075103750
       277    1       26.660246362500       6.283880330000       2.565383402500
       278    1       29.622495839843      10.473133715763       2.565383402500
       279    1       28.141371278907       8.378507274237       2.565383402500
       280    1       28.881933559375       6.283880330000       3.848075103750
       281    1       30.363058475782       8.378507274237       3.848075103750
       282    1       27.400808642968      10.473133715763       3.848075103750
       283    1       31.103620756250       6.283880330000       2.565383402500
       284    1       34.065870233593      10.473133715763       2.565383402500
       285    1       32.584745672657       8.378507274237       2.565383402500
       286    1       33.325307953125       6.283880330000       3.848075103750
       287    1       34.806432869532       8.378507274237       3.848075103750
       288    1       31.844183036718      10.473133715763       3.848075103750
       289    1        0.000000000000      12.567760660000       2.565383402500
       290    1        2.962249477343      16.757014045763       2.565383402500
       291    1        1.481124916407      14.662387604237       2.565383402500
       292    1        2.221687196875      12.567760660000       3.848075103750
       293    1        3.702812113282      14.662387604237       3.848075103750
       294    1        0.740562280468      16.757014045763       3.848075103750
       295    1        4.443374393750      12.567760660000       2.565383402500
       296    1        7.405623871093      16.757014045763       2.565383402500
       297    1        5.924499310157      14.662387604237       2.565383402500
       298    1        6.665061590625      12.567760660000       3.848075103750
       299    1        8.146186507032      14.662387604237       3.848075103750
       300    1        5.183936674218      16.757014045763       3.848075103750
       301    1        8.886748787500      12.567760660000       2.565383402500
       302    1       11.848998264843      16.757014045763       2.565383402500
       303    1       10.367873703907      14.662387604237       2.565383402500
       304    1       11.108435984375      12.567760660000       3.848075103750
       305    1       12.589560900782      14.662387604237       3.848075103750
       306    1        9.627311067968      16.757014045763       3.848075103750
       307    1       13.330123181250      12.567760660000       2.565383402500
       308    1       16.292372658593      16.757014045763       2.565383402500
       309    1       14.811248097657      14.662387604237       2.565383402500
       310    1       15.551810378125      12.567760660000       3.848075103750
       311    1       17.032935294532      14.662387604237       3.848075103750
       312    1       14.070685461718      16.757014045763       3.848075103750
       313    1       17.773497575000      12.567760660000       2.565383402500
       314    1       20.735747052343      16.757014045763       2.565383402500
       315    1       19.254622491407      14.662387604237       2.565383402500
       316    1       19.995184771875      12.567760660000       3.848075103750
       317    1       21.476309688282      14.662387604237       3.848075103750
       318    1       18.514059855468      16.757014045763       3.848075103750
       319    1       22.216871968750      12.567760660000       2.565383402500
       320    1       25.179121446093      16.757014045763       2.565383402500
       321    1       23.697996885157      14.662387604237       2.565383402500
       322    1       24.438559165625      12.567760660000       3.848075103750
       323    1       25.919684082032      14.662387604237       3.848075103750
       324    1       22.957434249218      16.757014045763       3.848075103750
       325    1       26.660246362500      12.567760660000       2.565383402500
       326    1       29.622495839843      16.757014045763       2.565383402500
       327    1       28.141371278907      14.662387604237       2.565383402500
       328    1       28.881933559375      12.567760660000       3.848075103750
       329    1       30.363058475782      14.662387604237       3.848075103750
       330    1       27.400808642968      16.757014045763       3.848075103750
       331    1       31.103620756250      12.567760660000       2.565383402500
       332    1       34.065870233593      16.757014045763       2.565383402500
       333    1       32.584745672657      14.662387604237       2.565383402500
       334    1       33.325307953125      12.567760660000       3.848075103750
       335    1       34.806432869532      14.662387604237       3.848075103750
       336    1       31.844183036718      16.757014045763       3.848075103750
       337    1        0.000000000000      18.851640990000       2.565383402500
       338    1        2.962249477343      23.040894375763       2.565383402500
       339    1        1.481124916407      20.946267934237       2.565383402500
       340    1        2.221687196875      18.851640990000       3.848075103750
       341    1        3.702812113282      20.946267934237       3.848075103750
       342    1        0.740562280468      23.040894375763       3.848075103750
       343    1        4.443374393750      18.851640990000       2.565383402500
       344    1        7.405623871093      23.040894375763       2.565383402500
       345    1        5.924499310157      20.946267934237       2.565383402500
       346    1        6.665061590625      18.851640990000       3.848075103750
       347    1        8.146186507032      20.946267934237       3.848075103750
       348    1        5.183936674218      23.040894375763       3.848075103750
       349    1        8.886748787500      18.851640990000       2.565383402500
       350    1       11.848998264843      23.040894375763       2.565383402500
       351    1       10.367873703907      20.946267934237       2.565383402500
       352    1       11.108435984375      18.851640990000       3.848075103750
       353    1       12.589560900782      20.946267934237       3.848075103750
       354    1        9.627311067968      23.040894375763       3.848075103750
       355    1       13.330123181250      18.851640990000       2.565383402500
       356    1       16.292372658593      23.040894375763       2.565383402500
       357    1       14.811248097657      20.946267934237       2.565383402500
       358    1       15.551810378125      18.851640990000       3.848075103750
       359    1       17.032935294532      20.946267934237       3.848075103750
       360    1       14.070685461718      23.040894375763       3.848075103750
       361    1       17.773497575000      18.851640990000       2.565383402500
       362    1       20.735747052343      23.040894375763       2.565383402500
       363    1       19.254622491407      20.946267934237       2.565383402500
       364    1       19.995184771875      18.851640990000       3.848075103750
       365    1       21.476309688282      20.946267934237       3.848075103750
       366    1       18.514059855468      23.040894375763       3.848075103750
       367    1       22.216871968750      18.851640990000       2.565383402500
       368    1       25.179121446093      23.040894375763       2.565383402500
       369    1       23.697996885157      20.946267934237       2.565383402500
       370    1       24.438559165625      18.851640990000       3.848075103750