 # Fcc Cu oriented X=[11-2] Y=[111] Z=[-110].
 
          36  atoms
           1  atom types
 
      0.000000000000       8.886748790000  xlo xhi
      0.000000000000       6.283880330000  ylo yhi
      0.000000000000       7.696150210000  zlo zhi
 
Masses
 
            1   63.54600000             # Cu
 
Atoms # atomic
 
         1    1        0.000000000000       0.000000000000       0.000000000000
         2    1        2.962249567044       4.189253574280       0.000000000000
         3    1        1.481124827956       2.094626755720       0.000000000000
         4    1        2.221687197500       0.000000000000       1.282691727321
         5    1        3.702812025456       2.094626755720       1.282691727321
         6    1        0.740562369544       4.189253574280       1.282691727321
         7    1        4.443374395000       0.000000000000       0.000000000000
         8    1        7.405623962044       4.189253574280       0.000000000000
         9    1        5.924499222956       2.094626755720       0.000000000000
        10    1        6.665061592500       0.000000000000       1.282691727321
        11    1        8.146186420456       2.094626755720       1.282691727321
        12    1        5.183936764544       4.189253574280       1.282691727321
        13    1        0.000000000000       0.000000000000       2.565383377679
        14    1        2.962249567044       4.189253574280       2.565383377679
        15    1        1.481124827956       2.094626755720       2.565383377679
        16    1        2.221687197500       0.000000000000       3.848075105000
        17    1        3.702812025456       2.094626755720       3.848075105000
        18    1        0.740562369544       4.189253574280       3.848075105000
        19    1        4.443374395000       0.000000000000       2.565383377679
        20    1        7.405623962044       4.189253574280       2.565383377679
        21    1        5.924499222956       2.094626755720       2.565383377679
        22    1        6.665061592500       0.000000000000       3.848075105000
        23    1        8.146186420456       2.094626755720       3.848075105000
        24    1        5.183936764544       4.189253574280       3.848075105000
        25    1        0.000000000000       0.000000000000       5.130766832321
        26    1        2.962249567044       4.189253574280       5.130766832321
        27    1        1.481124827956       2.094626755720       5.130766832321
        28    1        2.221687197500       0.000000000000       6.413458482679
        29    1        3.702812025456       2.094626755720       6.413458482679
        30    1        0.740562369544       4.189253574280       6.413458482679
        31    1        4.443374395000       0.000000000000       5.130766832321
        32    1        7.405623962044       4.189253574280       5.130766832321
        33    1        5.924499222956       2.094626755720       5.130766832321
        34    1        6.665061592500       0.000000000000       6.413458482679
        35    1        8.146186420456       2.094626755720       6.413458482679
        36    1        5.183936764544       4.189253574280       6.413458482679
