 # Fcc Cu oriented X=[100] Y=[010] Z=[001].
 
           4  atoms
           1  atom types
 
      0.000000000000       3.613315640000  xlo xhi
      0.000000000000       3.613315640000  ylo yhi
      0.000000000000       3.613315640000  zlo zhi
 
Masses
 
            1   63.54600000             # Cu
 
Atoms # atomic
 
         1    1        0.000000000000       0.000000000000       0.000000000000
         2    1        1.806657820000       1.806657820000       0.000000000000
         3    1        0.000000000000       1.806657820000       1.806657820000
         4    1        1.806657820000       0.000000000000       1.806657820000
