 # Fcc Cu oriented X=[11-2] Y=[111] Z=[-110].
 
           6  atoms
           1  atom types
 
      0.000000000000       4.425389800000  xlo xhi
      0.000000000000       6.258446280000  ylo yhi
      0.000000000000       2.554999990000  zlo zhi
 
Masses
 
            1   63.54600000             # Cu
 
Atoms # atomic
 
         1    1        0.000000000000       0.000000000000       0.000000000000
         2    1        2.950259881418       4.172297540861       0.000000000000
         3    1        1.475129918582       2.086148739139       0.000000000000
         4    1        2.212694900000       0.000000000000       1.277499995000
         5    1        3.687824818582       2.086148739139       1.277499995000
         6    1        0.737564981418       4.172297540861       1.277499995000
